LAMMPS Description

54 atoms
1 atom types

0.0 9.6 xlo xhi
0.0 9.6 ylo yhi
0.0 9.6 zlo zhi

Masses

1 1.000

Atoms

1 1 6.00 0.000000 0.000000 0.000000
2 1 6.00 1.600000 1.600000 1.600000
3 1 6.00 0.000000 0.000000 3.200000
4 1 6.00 1.600000 1.600000 4.800000
5 1 6.00 0.000000 0.000000 6.400000
6 1 6.00 1.600000 1.600000 8.000000
7 1 6.00 0.000000 3.200000 0.000000
8 1 6.00 1.600000 4.800000 1.600000
9 1 6.00 0.000000 3.200000 3.200000
10 1 6.00 1.600000 4.800000 4.800000
11 1 6.00 0.000000 3.200000 6.400000
12 1 6.00 1.600000 4.800000 8.000000
13 1 6.00 0.000000 6.400000 0.000000
14 1 6.00 1.600000 8.000000 1.600000
15 1 6.00 0.000000 6.400000 3.200000
16 1 6.00 1.600000 8.000000 4.800000
17 1 6.00 0.000000 6.400000 6.400000
18 1 6.00 1.600000 8.000000 8.000000
19 1 6.00 3.200000 0.000000 0.000000
20 1 6.00 4.800000 1.600000 1.600000
21 1 6.00 3.200000 0.000000 3.200000
22 1 6.00 4.800000 1.600000 4.800000
23 1 6.00 3.200000 0.000000 6.400000
24 1 6.00 4.800000 1.600000 8.000000
25 1 6.00 3.200000 3.200000 0.000000
26 1 6.00 4.800000 4.800000 1.600000
27 1 6.00 3.200000 3.200000 3.200000
28 1 6.00 4.800000 4.800000 4.800000
29 1 6.00 3.200000 3.200000 6.400000
30 1 6.00 4.800000 4.800000 8.000000
31 1 6.00 3.200000 6.400000 0.000000
32 1 6.00 4.800000 8.000000 1.600000
33 1 6.00 3.200000 6.400000 3.200000
34 1 6.00 4.800000 8.000000 4.800000
35 1 6.00 3.200000 6.400000 6.400000
36 1 6.00 4.800000 8.000000 8.000000
37 1 6.00 6.400000 0.000000 0.000000
38 1 6.00 8.000000 1.600000 1.600000
39 1 6.00 6.400000 0.000000 3.200000
40 1 6.00 8.000000 1.600000 4.800000
41 1 6.00 6.400000 0.000000 6.400000
42 1 6.00 8.000000 1.600000 8.000000
43 1 6.00 6.400000 3.200000 0.000000
44 1 6.00 8.000000 4.800000 1.600000
45 1 6.00 6.400000 3.200000 3.200000
46 1 6.00 8.000000 4.800000 4.800000
47 1 6.00 6.400000 3.200000 6.400000
48 1 6.00 8.000000 4.800000 8.000000
49 1 6.00 6.400000 6.400000 0.000000
50 1 6.00 8.000000 8.000000 1.600000
51 1 6.00 6.400000 6.400000 3.200000
52 1 6.00 8.000000 8.000000 4.800000
53 1 6.00 6.400000 6.400000 6.400000
54 1 6.00 8.000000 8.000000 8.000000
